# The variables
CC = gcc
SRC = main.c school.c
NAME = school
OBJ = $(SRC:.c=.o)
RM = rm -f
CFLAG = -Wall -Werror -Wextra -pedantic

# Building the executable file
all: $(OBJ)
	$(CC) $(CFLAG) $(OBJ) -o $(NAME)

# Prerequisite of the special target
.PHONY =  clean oclean fclean re

# Deletes all Emacs and Vim temporary files along with the executable

clean:
	$(RM) *~ $(NAME)

# Deletes the object files
oclean:
	$(RM) $(OBJ)

# Deletes all Emacs and Vim temporary files, the executable, and the object files
fclean: clean oclean

# Forces recompilation of all source files
re: oclean all
